LIGGGHTS 1.0.4-dev based on LAMMPS 10 Mar 2010
#Particle packing by insertion and successive growing of particles

atom_style	granular
atom_modify	map array
boundary	m m m
newton		off
#echo		both

communicate	single vel yes

units		si

region		reg block -0.05 0.05 -0.05 0.05 0. 0.15 units box
create_box	1 reg
Created orthogonal box = (-0.05 -0.05 0) to (0.05 0.05 0.15)
  1 by 1 by 1 processor grid

neighbor	0.002 bin
neigh_modify	delay 0


#Material properties required for new pair styles

fix 		m1 all property/global youngsModulus peratomtype 5.e6
fix 		m2 all property/global poissonsRatio peratomtype 0.45
fix 		m3 all property/global coefficientRestitution peratomtypepair 1 0.3
fix 		m4 all property/global coefficientFriction peratomtypepair 1 0.5

#New pair style
pair_style 	gran/hertz/history 1 0  #Hertzian without cohesion
pair_coeff	* *

timestep	0.00001

fix		xwalls all wall/gran/hertz/history 1 0 xplane -0.05 0.05 1
fix		ywalls all wall/gran/hertz/history 1 0 yplane -0.05 0.05 1
fix		zwalls all wall/gran/hertz/history 1 0 zplane  0.00 0.15 1


#distributions for insertion
fix		pts1 all particletemplate/sphere 1 atom_type 1 density constant 2500 radius constant 0.005
fix		pts2 all particletemplate/sphere 1 atom_type 1 density constant 2500 radius constant 0.008
fix		pdd1 all particledistribution/discrete 1.  2 pts1 0.3 pts2 0.7

#parameters for gradually growing particle diameter
variable	alphastart equal 0.25
variable	alphatarget equal 0.7
variable	growts equal 50000
variable	growevery equal 40
variable	dumpfrequ equal round(${growts}/100)
variable	dumpfrequ equal round(50000/200)

#region and insertion
group		nve_group region reg
0 atoms in group nve_group
fix		ins nve_group pour/dev/packing 1 distributiontemplate pdd1 vol ${alphastart} 200 region reg
fix		ins nve_group pour/dev/packing 1 distributiontemplate pdd1 vol 0.25 200 region reg
Particle packing insertion: trying 337.256163 particles once

#apply nve integration to all particles that are inserted as single particles
fix		integr nve_group nve/sphere

#output settings, include total thermal energy
compute		1 all erotate/sphere
thermo_style	custom step atoms ke c_1 vol
thermo		1000
thermo_modify	lost ignore norm no
compute_modify	thermo_temp dynamic yes

#insert the first particles, dump
run		1
Memory usage per processor = 9.5316 Mbytes
Step Atoms KinEng 1 Volume 
       0        0           -0            0       0.0015 
       1      336            0            0       0.0015 
Loop time of 0.00877306 on 1 procs for 1 steps with 336 atoms

Pair  time (%) = 1.40104e-05 (0.159698)
Neigh time (%) = 0.000487067 (5.55185)
Comm  time (%) = 7.93452e-06 (0.0904419)
Outpt time (%) = 3.2061e-05 (0.365449)
Other time (%) = 0.00823198 (93.8326)

Nlocal:    336 ave 336 max 336 min
Histogram: 1 0 0 0 0 0 0 0 0 0
Nghost:    0 ave 0 max 0 min
Histogram: 1 0 0 0 0 0 0 0 0 0
Neighs:    306 ave 306 max 306 min
Histogram: 1 0 0 0 0 0 0 0 0 0

Total # of neighbors = 306
Ave neighs/atom = 0.910714
Neighbor list builds = 1
Dangerous builds = 0
